                         Program Version 5.0.3 -  RELEASE  -
|  1> !B3LYP DEF2-TZVP D3BJ
|  2> !OPT FREQ TIGHTOPT TightSCF defgrid2
|  3> %SCF
|  4>     MaxIter 2000       # Here setting MaxIter to a very high number. Intended for systems that require sometimes 1000 iterations before converging (very rare).
|  5>     DIISMaxEq 5        # Default value is 5. A value of 15-40 necessary for difficult systems.
|  6>     directresetfreq 15 # Default value is 15. A value of 1 (very expensive) is sometimes required. A value between 1 and 15 may be more cost-effective.
|  7> END
|  8> %CPCM EPSILON 6.02 REFRAC 1.3723 END
|  9> %PAL NPROCS 32 END
| 10> * xyzfile 0 1 benzylamine.xyz
| 11>
| 12>                          ****END OF INPUT****
 Total Charge           Charge          ....    0
 Multiplicity           Mult            ....    1
 Number of Electrons    NEL             ....   58
Dispersion correction           -0.028128414
FINAL SINGLE POINT ENERGY      -326.855011745202
Dispersion correction            ... done
Dispersion correction           -0.028222199
FINAL SINGLE POINT ENERGY      -326.857949691630
Dispersion correction            ... done
Dispersion correction           -0.028232219
FINAL SINGLE POINT ENERGY      -326.858148801141
Dispersion correction            ... done
FINAL SINGLE POINT ENERGY      -326.858240299755
FINAL SINGLE POINT ENERGY      -326.858280336271
FINAL SINGLE POINT ENERGY      -326.858329198506
FINAL SINGLE POINT ENERGY      -326.858383025594
FINAL SINGLE POINT ENERGY      -326.858455551897
FINAL SINGLE POINT ENERGY      -326.858548916429
FINAL SINGLE POINT ENERGY      -326.858644943955
FINAL SINGLE POINT ENERGY      -326.858805026448
FINAL SINGLE POINT ENERGY      -326.858829227227
FINAL SINGLE POINT ENERGY      -326.858893554067
FINAL SINGLE POINT ENERGY      -326.858918000832
FINAL SINGLE POINT ENERGY      -326.858936664140
FINAL SINGLE POINT ENERGY      -326.858935746645
FINAL SINGLE POINT ENERGY      -326.858944611078
Dispersion correction           -0.028159644
FINAL SINGLE POINT ENERGY      -326.858946340077
Dispersion correction            ... done
Dispersion correction           -0.028159959
FINAL SINGLE POINT ENERGY      -326.858946280956
Dispersion correction            ... done
                    ***********************HURRAY********************

CARTESIAN COORDINATES (ANGSTROEM)
---------------------------------
  C     -2.732995    1.852648    1.607670
  C     -1.461805    2.403518    1.463087
  C     -0.391151    1.939710    2.224987
  C     -0.617141    0.909546    3.141030
  C     -1.882338    0.355530    3.288502
  C     -2.945860    0.826774    2.521012
  H     -3.553808    2.224720    1.006988
  H     -3.932153    0.394464    2.634847
  H     -1.297732    3.202068    0.748525
  H      0.207462    0.543989    3.741547
  H     -2.041226   -0.446259    3.999139
  C      0.979378    2.551734    2.081876
  N      1.321637    3.352074    3.270182
  H      1.012686    3.129731    1.150007
  H      1.726007    1.758176    1.996442
  H      0.681724    4.137014    3.345010
  H      2.250136    3.747325    3.159109

 Multiplicity           Mult            ....    1
 Number of Electrons    NEL             ....   58
 Basis Dimension        Dim             ....  302

ORBITAL ENERGIES
----------------

  NO   OCC          E(Eh)            E(eV)
   0   2.0000     -14.292226      -388.9112
   1   2.0000     -10.190962      -277.3102
   2   2.0000     -10.176229      -276.9093
   3   2.0000     -10.170521      -276.7539
   4   2.0000     -10.170300      -276.7479
   5   2.0000     -10.169457      -276.7250
   6   2.0000     -10.169184      -276.7176
   7   2.0000     -10.168234      -276.6917
   8   2.0000      -0.883784       -24.0490
   9   2.0000      -0.849690       -23.1212
  10   2.0000      -0.755630       -20.5617
  11   2.0000      -0.743766       -20.2389
  12   2.0000      -0.659806       -17.9542
  13   2.0000      -0.604115       -16.4388
  14   2.0000      -0.579057       -15.7570
  15   2.0000      -0.513348       -13.9689
  16   2.0000      -0.484053       -13.1717
  17   2.0000      -0.467312       -12.7162
  18   2.0000      -0.446297       -12.1444
  19   2.0000      -0.429944       -11.6994
  20   2.0000      -0.417830       -11.3697
  21   2.0000      -0.402469       -10.9517
  22   2.0000      -0.383782       -10.4432
  23   2.0000      -0.362369        -9.8606
  24   2.0000      -0.339454        -9.2370
  25   2.0000      -0.335176        -9.1206
  26   2.0000      -0.258108        -7.0235
  27   2.0000      -0.251916        -6.8550
  28   2.0000      -0.242969        -6.6115
  29   0.0000      -0.014197        -0.3863
  30   0.0000      -0.009642        -0.2624
  31   0.0000       0.044931         1.2226
  32   0.0000       0.063099         1.7170
  33   0.0000       0.080739         2.1970

MULLIKEN ATOMIC CHARGES
-----------------------
   0 C :   -0.129451
   1 C :   -0.194838
   2 C :    0.158270
   3 C :   -0.228887
   4 C :   -0.124475
   5 C :   -0.147526
   6 H :    0.132711
   7 H :    0.134307
   8 H :    0.128064
   9 H :    0.123557
  10 H :    0.133010
  11 C :   -0.089733
  12 N :   -0.563245
  13 H :    0.099947
  14 H :    0.112486
  15 H :    0.227511
  16 H :    0.228292
Sum of atomic charges:   -0.0000000

LOEWDIN ATOMIC CHARGES
----------------------
   0 C :   -0.147088
   1 C :   -0.121065
   2 C :   -0.155179
   3 C :   -0.113220
   4 C :   -0.145853
   5 C :   -0.150063
   6 H :    0.146543
   7 H :    0.146091
   8 H :    0.149006
   9 H :    0.150323
  10 H :    0.146711
  11 C :   -0.282486
  12 N :   -0.188601
  13 H :    0.121895
  14 H :    0.135949
  15 H :    0.154100
  16 H :    0.152937

  Mayer bond orders larger than 0.100000
B(  0-C ,  1-C ) :   1.3928 B(  0-C ,  5-C ) :   1.4004 B(  0-C ,  6-H ) :   0.9759
B(  1-C ,  2-C ) :   1.3769 B(  1-C ,  8-H ) :   0.9726 B(  2-C ,  3-C ) :   1.3257
B(  2-C , 11-C ) :   0.9473 B(  3-C ,  4-C ) :   1.4135 B(  3-C ,  9-H ) :   0.9816
B(  4-C ,  5-C ) :   1.3744 B(  4-C , 10-H ) :   0.9766 B(  5-C ,  7-H ) :   0.9706
B( 11-C , 12-N ) :   0.9721 B( 11-C , 13-H ) :   0.9721 B( 11-C , 14-H ) :   0.9635
B( 12-N , 15-H ) :   0.9299 B( 12-N , 16-H ) :   0.9288

Dispersion correction           -0.028159696
FINAL SINGLE POINT ENERGY      -326.858946201691

DIPOLE MOMENT
-------------
                                X             Y             Z
Electronic contribution:     -2.70290      -1.64766      -0.13377
Nuclear contribution   :      2.87234       2.10092      -0.35346
                        -----------------------------------------
Total Dipole Moment    :      0.16944       0.45326      -0.48723
                        -----------------------------------------
Magnitude (a.u.)       :      0.68669
Magnitude (Debye)      :      1.74544

Dispersion correction in the Hessian             ... done   (      0.3 sec)

VIBRATIONAL FREQUENCIES
-----------------------

Scaling factor for frequencies =  1.000000000  (already applied!)

   0:         0.00 cm**-1
   1:         0.00 cm**-1
   2:         0.00 cm**-1
   3:         0.00 cm**-1
   4:         0.00 cm**-1
   5:         0.00 cm**-1
   6:        34.67 cm**-1
   7:       140.74 cm**-1
   8:       244.64 cm**-1
   9:       304.79 cm**-1
  10:       373.85 cm**-1
  11:       415.16 cm**-1
  12:       497.27 cm**-1
  13:       590.12 cm**-1
  14:       636.94 cm**-1
  15:       714.47 cm**-1
  16:       767.63 cm**-1
  17:       802.65 cm**-1
  18:       858.71 cm**-1
  19:       861.13 cm**-1
  20:       934.81 cm**-1
  21:       975.89 cm**-1
  22:       991.40 cm**-1
  23:       996.38 cm**-1
  24:      1021.73 cm**-1
  25:      1035.30 cm**-1
  26:      1052.06 cm**-1
  27:      1102.91 cm**-1
  28:      1164.55 cm**-1
  29:      1175.76 cm**-1
  30:      1195.56 cm**-1
  31:      1234.55 cm**-1
  32:      1289.46 cm**-1
  33:      1342.26 cm**-1
  34:      1363.02 cm**-1
  35:      1415.90 cm**-1
  36:      1485.32 cm**-1
  37:      1506.13 cm**-1
  38:      1529.24 cm**-1
  39:      1623.12 cm**-1
  40:      1631.39 cm**-1
  41:      1644.94 cm**-1
  42:      2981.41 cm**-1
  43:      3048.56 cm**-1
  44:      3158.90 cm**-1
  45:      3163.15 cm**-1
  46:      3171.98 cm**-1
  47:      3179.57 cm**-1
  48:      3189.89 cm**-1
  49:      3464.64 cm**-1
  50:      3537.83 cm**-1

IR SPECTRUM
-----------

 Mode   freq       eps      Int      T**2         TX        TY        TZ
       cm**-1   L/(mol*cm) km/mol    a.u.
----------------------------------------------------------------------------
  6:     34.67   0.000536    2.71  0.004827  (-0.001223 -0.053062 -0.044836)
  7:    140.74   0.001261    6.37  0.002796  (-0.021850  0.034355  0.033736)
  8:    244.64   0.013567   68.56  0.017306  (-0.130141  0.019180 -0.001068)
  9:    304.79   0.000244    1.23  0.000250  (-0.013742  0.006781 -0.003903)
 10:    373.85   0.003232   16.33  0.002697  ( 0.047228  0.013029  0.017240)
 11:    415.16   0.000021    0.10  0.000015  (-0.003111  0.002109  0.001136)
 12:    497.27   0.001640    8.29  0.001029  (-0.002801  0.024646  0.020346)
 13:    590.12   0.002957   14.94  0.001564  (-0.036857  0.013577  0.004581)
 14:    636.94   0.000041    0.21  0.000020  (-0.001649  0.004153 -0.000446)
 15:    714.47   0.014720   74.39  0.006429  (-0.017849  0.055636  0.054914)
 16:    767.63   0.012285   62.08  0.004994  (-0.004152  0.041895  0.056759)
 17:    802.65   0.008335   42.12  0.003241  ( 0.006803  0.012440  0.055133)
 18:    858.71   0.004232   21.39  0.001538  (-0.005576  0.002489 -0.038740)
 19:    861.13   0.022159  111.98  0.008030  (-0.009689  0.007770 -0.088747)
 20:    934.81   0.000787    3.98  0.000263  ( 0.000723 -0.016152  0.001200)
 21:    975.89   0.000059    0.30  0.000019  ( 0.000290 -0.000835  0.004245)
 22:    991.40   0.009423   47.62  0.002966  (-0.005176  0.009421 -0.053389)
 23:    996.38   0.000872    4.41  0.000273  (-0.000859  0.007959 -0.014463)
 24:   1021.73   0.000412    2.08  0.000126  (-0.007680 -0.006384 -0.005098)
 25:   1035.30   0.003732   18.86  0.001125  (-0.019381 -0.027115  0.003769)
 26:   1052.06   0.000599    3.03  0.000178  ( 0.012992 -0.001626 -0.002513)
 27:   1102.91   0.000779    3.94  0.000220  ( 0.007889 -0.011756  0.004464)
 28:   1164.55   0.000353    1.78  0.000095  (-0.003131  0.001947 -0.009001)
 29:   1175.76   0.000014    0.07  0.000004  ( 0.001498  0.001187  0.000306)
 30:   1195.56   0.000010    0.05  0.000003  ( 0.001574  0.000287 -0.000028)
 31:   1234.55   0.000848    4.29  0.000214  (-0.008351 -0.011118  0.004586)
 32:   1289.46   0.000903    4.56  0.000219  ( 0.000760  0.014762  0.000081)
 33:   1342.26   0.000107    0.54  0.000025  (-0.003166  0.003659  0.001176)
 34:   1363.02   0.000234    1.18  0.000053  ( 0.004684  0.001236 -0.005477)
 35:   1415.90   0.005716   28.88  0.001260  (-0.027486 -0.021565 -0.006260)
 36:   1485.32   0.002051   10.37  0.000431  ( 0.006938 -0.010653  0.016411)
 37:   1506.13   0.000419    2.12  0.000087  ( 0.006155  0.000566 -0.006977)
 38:   1529.24   0.002055   10.39  0.000419  (-0.019691 -0.005365  0.001689)
 39:   1623.12   0.000088    0.45  0.000017  (-0.003920 -0.000239 -0.001245)
 40:   1631.39   0.006931   35.03  0.001326  ( 0.002213  0.036275  0.002251)
 41:   1644.94   0.001973    9.97  0.000374  (-0.009640 -0.016773  0.000275)
 42:   2981.41   0.020489  103.54  0.002145  (-0.011109 -0.008364  0.044172)
 43:   3048.56   0.007297   36.88  0.000747  ( 0.019452 -0.019161  0.001211)
 44:   3158.90   0.001722    8.70  0.000170  (-0.007920 -0.008402  0.006067)
 45:   3163.15   0.000458    2.31  0.000045  (-0.004793  0.002819 -0.003775)
 46:   3171.98   0.002265   11.44  0.000223  (-0.012543 -0.007031  0.004003)
 47:   3179.57   0.008359   42.24  0.000820  ( 0.012352 -0.016923  0.019530)
 48:   3189.89   0.003160   15.97  0.000309  (-0.015655 -0.007783  0.001871)
 49:   3464.64   0.000062    0.31  0.000006  (-0.002316  0.000390  0.000212)
 50:   3537.83   0.000470    2.37  0.000041  (-0.005574  0.003030  0.001090)

--------------------------
THERMOCHEMISTRY AT 298.15K
--------------------------

Temperature         ... 298.15 K
Pressure            ... 1.00 atm
Total Mass          ... 107.16 AMU

Throughout the following assumptions are being made:
  (1) The electronic state is orbitally nondegenerate
  (2) There are no thermally accessible electronically excited states
  (3) Hindered rotations indicated by low frequency modes are not
      treated as such but are treated as vibrations and this may
      cause some error
  (4) All equations used are the standard statistical mechanics
      equations for an ideal gas
  (5) All vibrations are strictly harmonic

freq.      34.67  E(vib)   ...       0.54
freq.     140.74  E(vib)   ...       0.41
freq.     244.64  E(vib)   ...       0.31
freq.     304.79  E(vib)   ...       0.26
freq.     373.85  E(vib)   ...       0.21
freq.     415.16  E(vib)   ...       0.19
freq.     497.27  E(vib)   ...       0.14
freq.     590.12  E(vib)   ...       0.10
freq.     636.94  E(vib)   ...       0.09
freq.     714.47  E(vib)   ...       0.07
freq.     767.63  E(vib)   ...       0.06
freq.     802.65  E(vib)   ...       0.05
freq.     858.71  E(vib)   ...       0.04
freq.     861.13  E(vib)   ...       0.04
freq.     934.81  E(vib)   ...       0.03
freq.     975.89  E(vib)   ...       0.03
freq.     991.40  E(vib)   ...       0.02
freq.     996.38  E(vib)   ...       0.02
freq.    1021.73  E(vib)   ...       0.02
freq.    1035.30  E(vib)   ...       0.02
freq.    1052.06  E(vib)   ...       0.02
freq.    1102.91  E(vib)   ...       0.02
freq.    1164.55  E(vib)   ...       0.01
freq.    1175.76  E(vib)   ...       0.01
freq.    1195.56  E(vib)   ...       0.01
freq.    1234.55  E(vib)   ...       0.01
freq.    1289.46  E(vib)   ...       0.01
freq.    1342.26  E(vib)   ...       0.01
freq.    1363.02  E(vib)   ...       0.01
freq.    1415.90  E(vib)   ...       0.00
freq.    1485.32  E(vib)   ...       0.00
freq.    1506.13  E(vib)   ...       0.00
freq.    1529.24  E(vib)   ...       0.00
freq.    1623.12  E(vib)   ...       0.00
freq.    1631.39  E(vib)   ...       0.00
freq.    1644.94  E(vib)   ...       0.00
freq.    2981.41  E(vib)   ...       0.00
freq.    3048.56  E(vib)   ...       0.00
freq.    3158.90  E(vib)   ...       0.00
freq.    3163.15  E(vib)   ...       0.00
freq.    3171.98  E(vib)   ...       0.00
freq.    3179.57  E(vib)   ...       0.00
freq.    3189.89  E(vib)   ...       0.00
freq.    3464.64  E(vib)   ...       0.00
freq.    3537.83  E(vib)   ...       0.00

------------
INNER ENERGY
------------

The inner energy is: U= E(el) + E(ZPE) + E(vib) + E(rot) + E(trans)
    E(el)   - is the total energy from the electronic structure calculation
              = E(kin-el) + E(nuc-el) + E(el-el) + E(nuc-nuc)
    E(ZPE)  - the the zero temperature vibrational energy from the frequency calculation
    E(vib)  - the the finite temperature correction to E(ZPE) due to population
              of excited vibrational states
    E(rot)  - is the rotational thermal energy
    E(trans)- is the translational thermal energy

Summary of contributions to the inner energy U:
Electronic energy                ...   -326.85894620 Eh
Zero point energy                ...      0.14546185 Eh      91.28 kcal/mol
Thermal vibrational correction   ...      0.00440975 Eh       2.77 kcal/mol
Thermal rotational correction    ...      0.00141627 Eh       0.89 kcal/mol
Thermal translational correction ...      0.00141627 Eh       0.89 kcal/mol
-----------------------------------------------------------------------
Total thermal energy                   -326.70624205 Eh

Summary of corrections to the electronic energy:
(perhaps to be used in another calculation)
Total thermal correction                  0.00724229 Eh       4.54 kcal/mol
Non-thermal (ZPE) correction              0.14546185 Eh      91.28 kcal/mol
-----------------------------------------------------------------------
Total correction                          0.15270415 Eh      95.82 kcal/mol

--------
ENTHALPY
--------

The enthalpy is H = U + kB*T
                kB is Boltzmann's constant
Total free energy                 ...   -326.70624205 Eh
Thermal Enthalpy correction       ...      0.00094421 Eh       0.59 kcal/mol
-----------------------------------------------------------------------
Total Enthalpy                    ...   -326.70529785 Eh

Note: Only C1 symmetry has been detected, increase convergence thresholds
      if your molecule has a higher symmetry. Symmetry factor of 1.0 is
      used for the rotational entropy correction.

Note: Rotational entropy computed according to Herzberg
Infrared and Raman Spectra, Chapter V,1, Van Nostrand Reinhold, 1945
Point Group:  C1, Symmetry Number:   1
Rotational constants in cm-1:     0.156252     0.048959     0.040287

Vibrational entropy computed according to the QRRHO of S. Grimme
Chem.Eur.J. 2012 18 9955

-------
ENTROPY
-------

The entropy contributions are T*S = T*(S(el)+S(vib)+S(rot)+S(trans))
     S(el)   - electronic entropy
     S(vib)  - vibrational entropy
     S(rot)  - rotational entropy
     S(trans)- translational entropy
The entropies will be listed as multiplied by the temperature to get
units of energy

Electronic entropy                ...      0.00000000 Eh      0.00 kcal/mol
Vibrational entropy               ...      0.00733258 Eh      4.60 kcal/mol
Rotational entropy                ...      0.01332757 Eh      8.36 kcal/mol
Translational entropy             ...      0.01896913 Eh     11.90 kcal/mol
-----------------------------------------------------------------------
Final entropy term                ...      0.03962927 Eh     24.87 kcal/mol

In case the symmetry of your molecule has not been determined correctly
or in case you have a reason to use a different symmetry number we print
out the resulting rotational entropy values for sn=1,12 :
 --------------------------------------------------------
|  sn= 1 | S(rot)=       0.01332757 Eh      8.36 kcal/mol|
|  sn= 2 | S(rot)=       0.01267311 Eh      7.95 kcal/mol|
|  sn= 3 | S(rot)=       0.01229028 Eh      7.71 kcal/mol|
|  sn= 4 | S(rot)=       0.01201866 Eh      7.54 kcal/mol|
|  sn= 5 | S(rot)=       0.01180797 Eh      7.41 kcal/mol|
|  sn= 6 | S(rot)=       0.01163582 Eh      7.30 kcal/mol|
|  sn= 7 | S(rot)=       0.01149028 Eh      7.21 kcal/mol|
|  sn= 8 | S(rot)=       0.01136420 Eh      7.13 kcal/mol|
|  sn= 9 | S(rot)=       0.01125299 Eh      7.06 kcal/mol|
|  sn=10 | S(rot)=       0.01115351 Eh      7.00 kcal/mol|
|  sn=11 | S(rot)=       0.01106352 Eh      6.94 kcal/mol|
|  sn=12 | S(rot)=       0.01098137 Eh      6.89 kcal/mol|
 --------------------------------------------------------

-------------------
GIBBS FREE ENERGY
-------------------

                             ****ORCA TERMINATED NORMALLY****
TOTAL RUN TIME: 0 days 1 hours 8 minutes 50 seconds 276 msec
